# vtk DataFile Version 2.0
test010000
ASCII
DATASET UNSTRUCTURED_GRID
POINTS 10201 float
0.0000000 -1.0000000 0.0000000
0.0000000 -1.0200000 0.0000000
0.0000000 -1.0400000 0.0000000
0.0000000 -1.0600000 0.0000000
0.0000000 -1.0800000 0.0000000
0.0000000 -1.1000000 0.0000000
0.0000000 -1.1200000 0.0000000
0.0000000 -1.1400000 0.0000000
0.0000000 -1.1600000 0.0000000
0.0000000 -1.1800000 0.0000000
0.0000000 -1.2000000 0.0000000
0.0000000 -1.2200000 0.0000000
0.0000000 -1.2400000 0.0000000
0.0000000 -1.2600000 0.0000000
0.0000000 -1.2800000 0.0000000
0.0000000 -1.3000000 0.0000000
0.0000000 -1.3200000 0.0000000
0.0000000 -1.3400000 0.0000000
0.0000000 -1.3600000 0.0000000
0.0000000 -1.3800000 0.0000000
0.0000000 -1.4000000 0.0000000
0.0000000 -1.4200000 0.0000000
0.0000000 -1.4400000 0.0000000
0.0000000 -1.4600000 0.0000000
0.0000000 -1.4800000 0.0000000
0.0000000 -1.5000000 0.0000000
0.0000000 -1.5200000 0.0000000
0.0000000 -1.5400000 0.0000000
0.0000000 -1.5600000 0.0000000
0.0000000 -1.5800000 0.0000000
0.0000000 -1.6000000 0.0000000
0.0000000 -1.6200000 0.0000000
0.0000000 -1.6400000 0.0000000
0.0000000 -1.6600000 0.0000000
0.0000000 -1.6800000 0.0000000
0.0000000 -1.7000000 0.0000000
0.0000000 -1.7200000 0.0000000
0.0000000 -1.7400000 0.0000000
0.0000000 -1.7600000 0.0000000
0.0000000 -1.7800000 0.0000000
0.0000000 -1.8000000 0.0000000
0.0000000 -1.8200000 0.0000000
0.0000000 -1.8400000 0.0000000
0.0000000 -1.8600000 0.0000000
0.0000000 -1.8800000 0.0000000
0.0000000 -1.9000000 0.0000000
0.0000000 -1.9200000 0.0000000
0.0000000 -1.9400000 0.0000000
0.0000000 -1.9600000 0.0000000
0.0000000 -1.9800000 0.0000000
0.0000000 -2.0000000 0.0000000
0.0000000 -2.0200000 0.0000000
0.0000000 -2.0400000 0.0000000
0.0000000 -2.0600000 0.0000000
0.0000000 -2.0800000 0.0000000
0.0000000 -2.1000000 0.0000000
0.0000000 -2.1200000 0.0000000
0.0000000 -2.1400000 0.0000000
0.0000000 -2.1600000 0.0000000
0.0000000 -2.1800000 0.0000000
0.0000000 -2.2000000 0.0000000
0.0000000 -2.2200000 0.0000000
0.0000000 -2.2400000 0.0000000
0.0000000 -2.2600000 0.0000000
0.0000000 -2.2800000 0.0000000
0.0000000 -2.3000000 0.0000000
0.0000000 -2.3200000 0.0000000
0.0000000 -2.3400000 0.0000000
0.0000000 -2.3600000 0.0000000
0.0000000 -2.3800000 0.0000000
0.0000000 -2.4000000 0.0000000
0.0000000 -2.4200000 0.0000000
0.0000000 -2.4400000 0.0000000
0.0000000 -2.4600000 0.0000000
0.0000000 -2.4800000 0.0000000
0.0000000 -2.5000000 0.0000000
0.0000000 -2.5200000 0.0000000
0.0000000 -2.5400000 0.0000000
0.0000000 -2.5600000 0.0000000
0.0000000 -2.5800000 0.0000000
0.0000000 -2.6000000 0.0000000
0.0000000 -2.6200000 0.0000000
0.0000000 -2.6400000 0.0000000
0.0000000 -2.6600000 0.0000000
0.0000000 -2.6800000 0.0000000
0.0000000 -2.7000000 0.0000000
0.0000000 -2.7200000 0.0000000
0.0000000 -2.7400000 0.0000000
0.0000000 -2.7600000 0.0000000
0.0000000 -2.7800000 0.0000000
0.0000000 -2.8000000 0.0000000
0.0000000 -2.8200000 0.0000000
0.0000000 -2.8400000 0.0000000
0.0000000 -2.8600000 0.0000000
0.0000000 -2.8800000 0.0000000
0.0000000 -2.9000000 0.0000000
0.0000000 -2.9200000 0.0000000
0.0000000 -2.9400000 0.0000000
0.0000000 -2.9600000 0.0000000
0.0000000 -2.9800000 0.0000000
0.0000000 -3.0000000 0.0000000
-0.0314108 -0.9995066 0.0000000
-0.0320390 -1.0194967 0.0000000
-0.0326672 -1.0394868 0.0000000
-0.0332954 -1.0594770 0.0000000
-0.0339236 -1.0794671 0.0000000
-0.0345518 -1.0994572 0.0000000
-0.0351801 -1.1194473 0.0000000
-0.0358083 -1.1394375 0.0000000
-0.0364365 -1.1594276 0.0000000
-0.0370647 -1.1794177 0.0000000
-0.0376929 -1.1994079 0.0000000
-0.0383211 -1.2193980 0.0000000
-0.0389493 -1.2393881 0.0000000
-0.0395776 -1.2593783 0.0000000
-0.0402058 -1.2793684 0.0000000
-0.0408340 -1.2993585 0.0000000
-0.0414622 -1.3193487 0.0000000
-0.0420904 -1.3393388 0.0000000
-0.0427186 -1.3593289 0.0000000
-0.0433468 -1.3793191 0.0000000
-0.0439751 -1.3993092 0.0000000
-0.0446033 -1.4192993 0.0000000
-0.0452315 -1.4392894 0.0000000
-0.0458597 -1.4592796 0.0000000
-0.0464879 -1.4792697 0.0000000
-0.0471161 -1.4992598 0.0000000
-0.0477444 -1.5192500 0.0000000
-0.0483726 -1.5392401 0.0000000
-0.0490008 -1.5592302 0.0000000
-0.0496290 -1.5792204 0.0000000
-0.0502572 -1.5992105 0.0000000
-0.0508854 -1.6192006 0.0000000
-0.0515136 -1.6391908 0.0000000
-0.0521419 -1.6591809 0.0000000
-0.0527701 -1.6791710 0.0000000
-0.0533983 -1.6991611 0.0000000
-0.0540265 -1.7191513 0.0000000
-0.0546547 -1.7391414 0.0000000
-0.0552829 -1.7591315 0.0000000
-0.0559112 -1.7791217 0.0000000
-0.0565394 -1.7991118 0.0000000
-0.0571676 -1.8191019 0.0000000
-0.0577958 -1.8390921 0.0000000
-0.0584240 -1.8590822 0.0000000
-0.0590522 -1.8790723 0.0000000
-0.0596804 -1.8990625 0.0000000
-0.0603087 -1.9190526 0.0000000
-0.0609369 -1.9390427 0.0000000
-0.0615651 -1.9590329 0.0000000
-0.0621933 -1.9790230 0.0000000
-0.0628215 -1.9990131 0.0000000
-0.0634497 -2.0190032 0.0000000
-0.0640779 -2.0389934 0.0000000
-0.0647062 -2.0589835 0.0000000
-0.0653344 -2.0789737 0.0000000
-0.0659626 -2.0989638 0.0000000
-0.0665908 -2.1189539 0.0000000
-0.0672190 -2.1389440 0.0000000
-0.0678472 -2.1589342 0.0000000
-0.0684755 -2.1789243 0.0000000
-0.0691037 -2.1989144 0.0000000
-0.0697319 -2.2189046 0.0000000
-0.0703601 -2.2388947 0.0000000
-0.0709883 -2.2588848 0.0000000
-0.0716165 -2.2788750 0.0000000
-0.0722447 -2.2988651 0.0000000
-0.0728730 -2.3188552 0.0000000
-0.0735012 -2.3388454 0.0000000
-0.0741294 -2.3588355 0.0000000
-0.0747576 -2.3788256 0.0000000
-0.0753858 -2.3988157 0.0000000
-0.0760140 -2.4188059 0.0000000
-0.0766423 -2.4387960 0.0000000
-0.0772705 -2.4587861 0.0000000
-0.0778987 -2.4787763 0.0000000
-0.0785269 -2.4987664 0.0000000
-0.0791551 -2.5187565 0.0000000
-0.0797833 -2.5387467 0.0000000
-0.0804115 -2.5587368 0.0000000
-0.0810398 -2.5787269 0.0000000
-0.0816680 -2.5987171 0.0000000
-0.0822962 -2.6187072 0.0000000
-0.0829244 -2.6386973 0.0000000
-0.0835526 -2.6586874 0.0000000
-0.0841808 -2.6786776 0.0000000
-0.0848090 -2.6986677 0.0000000
-0.0854373 -2.7186578 0.0000000
-0.0860655 -2.7386480 0.0000000
-0.0866937 -2.7586381 0.0000000
-0.0873219 -2.7786282 0.0000000
-0.0879501 -2.7986184 0.0000000
-0.0885783 -2.8186085 0.0000000
-0.0892066 -2.8385986 0.0000000
-0.0898348 -2.8585888 0.0000000
-0.0904630 -2.8785789 0.0000000
-0.0910912 -2.8985690 0.0000000
-0.0917194 -2.9185592 0.0000000
-0.0923476 -2.9385493 0.0000000
-0.0929758 -2.9585394 0.0000000
-0.0936041 -2.9785296 0.0000000
-0.0942323 -2.9985197 0.0000000
-0.0627905 -0.9980267 0.0000000
-0.0640463 -1.0179873 0.0000000
-0.0653021 -1.0379478 0.0000000
-0.0665580 -1.0579083 0.0000000
-0.0678138 -1.0778689 0.0000000
-0.0690696 -1.0978294 0.0000000
-0.0703254 -1.1177899 0.0000000
-0.0715812 -1.1377505 0.0000000
-0.0728370 -1.1577110 0.0000000
-0.0740928 -1.1776715 0.0000000
-0.0753486 -1.1976321 0.0000000
-0.0766044 -1.2175926 0.0000000
-0.0778602 -1.2375531 0.0000000
-0.0791161 -1.2575137 0.0000000
-0.0803719 -1.2774742 0.0000000
-0.0816277 -1.2974348 0.0000000
-0.0828835 -1.3173953 0.0000000
-0.0841393 -1.3373558 0.0000000
-0.0853951 -1.3573164 0.0000000
-0.0866509 -1.3772769 0.0000000
-0.0879067 -1.3972374 0.0000000
-0.0891625 -1.4171980 0.0000000
-0.0904183 -1.4371585 0.0000000
-0.0916742 -1.4571190 0.0000000
-0.0929300 -1.4770796 0.0000000
-0.0941858 -1.4970401 0.0000000
-0.0954416 -1.5170006 0.0000000
-0.0966974 -1.5369612 0.0000000
-0.0979532 -1.5569217 0.0000000
-0.0992090 -1.5768822 0.0000000
-0.1004648 -1.5968428 0.0000000
-0.1017206 -1.6168033 0.0000000
-0.1029765 -1.6367638 0.0000000
-0.1042323 -1.6567244 0.0000000
-0.1054881 -1.6766849 0.0000000
-0.1067439 -1.6966454 0.0000000
-0.1079997 -1.7166060 0.0000000
-0.1092555 -1.7365665 0.0000000
-0.1105113 -1.7565270 0.0000000
-0.1117671 -1.7764876 0.0000000
-0.1130229 -1.7964481 0.0000000
-0.1142787 -1.8164087 0.0000000
-0.1155346 -1.8363692 0.0000000
-0.1167904 -1.8563297 0.0000000
-0.1180462 -1.8762903 0.0000000
-0.1193020 -1.8962508 0.0000000
-0.1205578 -1.9162113 0.0000000
-0.1218136 -1.9361719 0.0000000
-0.1230694 -1.9561324 0.0000000
-0.1243252 -1.9760929 0.0000000
-0.1255810 -1.9960535 0.0000000
-0.1268368 -2.0160140 0.0000000
-0.1280927 -2.0359745 0.0000000
-0.1293485 -2.0559351 0.0000000
-0.1306043 -2.0758956 0.0000000
-0.1318601 -2.0958561 0.0000000
-0.1331159 -2.1158167 0.0000000
-0.1343717 -2.1357772 0.0000000
-0.1356275 -2.1557377 0.0000000
-0.1368833 -2.1756983 0.0000000
-0.1381391 -2.1956588 0.0000000
-0.1393950 -2.2156193 0.0000000
-0.1406508 -2.2355799 0.0000000
-0.1419066 -2.2555404 0.0000000
-0.1431624 -2.2755009 0.0000000
-0.1444182 -2.2954615 0.0000000
-0.1456740 -2.3154220 0.0000000
-0.1469298 -2.3353825 0.0000000
-0.1481856 -2.3553431 0.0000000
-0.1494414 -2.3753036 0.0000000
-0.1506972 -2.3952642 0.0000000
-0.1519531 -2.4152247 0.0000000
-0.1532089 -2.4351852 0.0000000
-0.1544647 -2.4551457 0.0000000
-0.1557205 -2.4751063 0.0000000
-0.1569763 -2.4950668 0.0000000
-0.1582321 -2.5150274 0.0000000
-0.1594879 -2.5349879 0.0000000
-0.1607437 -2.5549484 0.0000000
-0.1619995 -2.5749090 0.0000000
-0.1632554 -2.5948695 0.0000000
-0.1645112 -2.6148300 0.0000000
-0.1657670 -2.6347906 0.0000000
-0.1670228 -2.6547511 0.0000000
-0.1682786 -2.6747116 0.0000000
-0.1695344 -2.6946722 0.0000000
-0.1707902 -2.7146327 0.0000000
-0.1720460 -2.7345932 0.0000000
-0.1733018 -2.7545538 0.0000000
-0.1745576 -2.7745143 0.0000000
-0.1758135 -2.7944748 0.0000000
-0.1770693 -2.8144354 0.0000000
-0.1783251 -2.8343959 0.0000000
-0.1795809 -2.8543564 0.0000000
-0.1808367 -2.8743170 0.0000000
-0.1820925 -2.8942775 0.0000000
-0.1833483 -2.9142380 0.0000000
-0.1846041 -2.9341986 0.0000000
-0.1858599 -2.9541591 0.0000000
-0.1871157 -2.9741197 0.0000000
-0.1883716 -2.9940802 0.0000000
-0.0941083 -0.9955620 0.0000000
-0.0959905 -1.0154732 0.0000000
-0.0978726 -1.0353844 0.0000000
-0.0997548 -1.0552957 0.0000000
-0.1016370 -1.0752069 0.0000000
-0.1035191 -1.0951182 0.0000000
-0.1054013 -1.1150294 0.0000000
-0.1072835 -1.1349406 0.0000000
-0.1091656 -1.1548519 0.0000000
[...]
CELL_DATA 10000
SCALARS rho float
LOOKUP_TABLE default
1.9961519
1.2495631
1.2556178
1.2081610
1.2036008
1.2020052
1.2017356
1.2016257
1.2015503
1.2014809
1.2014137
1.2013478
1.2012830
1.2012197
1.2011576
1.2010964
1.2010363
1.2009777
1.2009200
1.2008630
1.2008073
1.2007530
1.2006995
1.2006471
1.2005957
1.2005451
1.2004955
1.2004466
1.2003988
1.2003524
1.2003067
1.2002618
1.2002180
1.2001749
1.2001328
1.2000917
1.2000512
1.2000118
1.1999736
1.1999360
1.1998992
1.1998633
1.1998282
1.1997939
1.1997606
1.1997280
1.1996964
1.1996658
1.1996358
1.1996067
1.1995786
1.1995511
1.1995242
1.1994985
1.1994737
1.1994498
1.1994267
1.1994045
1.1993828
1.1993622
1.1993423
1.1993233
1.1993055
1.1992884
1.1992721
1.1992568
1.1992423
1.1992287
1.1992161
1.1992041
1.1991931
1.1991835
1.1991748
1.1991668
1.1991601
1.1991542
1.1991493
1.1991455
1.1991427
1.1991413
1.1991411
1.1991420
1.1991440
1.1991476
1.1991525
1.1991587
1.1991665
1.1991761
1.1991875
1.1992009
1.1992162
1.1992339
1.1992543
1.1992776
1.1993044
1.1993360
1.1993733
1.1994189
1.1994815
1.1995635
2.0061441
1.2452218
1.2427801
1.2068616
1.2033204
1.2022455
1.2020435
1.2019493
1.2018761
1.2018071
1.2017399
1.2016741
1.2016094
1.2015459
1.2014836
1.2014224
1.2013622
1.2013036
1.2012459
1.2011890
1.2011334
1.2010789
1.2010252
1.2009727
1.2009213
1.2008707
1.2008210
1.2007722
1.2007245
1.2006779
1.2006321
1.2005871
1.2005432
1.2005001
1.2004580
1.2004169
1.2003765
1.2003369
1.2002985
1.2002609
1.2002240
1.2001882
1.2001530
1.2001187
1.2000854
1.2000529
1.2000211
1.1999903
1.1999603
1.1999311
1.1999030
1.1998754
1.1998487
1.1998230
1.1997981
1.1997739
1.1997509
1.1997286
1.1997068
1.1996861
1.1996664
1.1996474
1.1996295
1.1996122
1.1995959
1.1995805
1.1995660
1.1995523
1.1995397
1.1995278
1.1995169
1.1995071
1.1994982
1.1994902
1.1994834
1.1994775
1.1994725
1.1994688
1.1994661
1.1994645
1.1994642
1.1994649
1.1994669
1.1994705
1.1994753
1.1994816
1.1994895
1.1994989
1.1995100
1.1995233
1.1995385
1.1995560
1.1995764
1.1995996
1.1996262
1.1996573
1.1996938
1.1997375
1.1997924
1.1998667
2.0109748
1.2401524
1.2335094
1.2057522
1.2030008
1.2022515
1.2020928
1.2020076
1.2019357
1.2018669
1.2017997
1.2017337
1.2016690
1.2016056
1.2015432
1.2014818
1.2014218
1.2013630
1.2013053
1.2012484
1.2011926
1.2011381
1.2010845
1.2010318
1.2009804
1.2009298
1.2008799
1.2008310
1.2007834
1.2007367
1.2006908
1.2006458
1.2006018
1.2005586
1.2005165
1.2004753
1.2004348
1.2003952
1.2003566
1.2003189
1.2002821
1.2002461
1.2002108
1.2001765
1.2001431
1.2001104
1.2000787
1.2000477
1.2000176
1.1999884
1.1999601
1.1999324
1.1999057
1.1998798
1.1998548
1.1998306
1.1998073
1.1997849
1.1997632
1.1997422
1.1997224
1.1997035
1.1996852
1.1996679
1.1996515
1.1996359
1.1996212
1.1996076
1.1995947
1.1995827
1.1995717
1.1995617
1.1995526
1.1995445
1.1995375
1.1995314
1.1995264
1.1995224
1.1995195
1.1995178
1.1995172
1.1995177
1.1995196
1.1995228
1.1995274
1.1995335
1.1995410
1.1995500
1.1995609
1.1995738
1.1995886
1.1996057
1.1996253
1.1996479
1.1996738
1.1997037
1.1997388
1.1997806
1.1998320
1.1998995
2.0127007
1.2353869
1.2268225
1.2049744
1.2028210
1.2022798
1.2021491
1.2020691
1.2019979
1.2019291
1.2018619
1.2017959
1.2017312
1.2016677
1.2016052
1.2015438
1.2014837
1.2014249
1.2013671
1.2013102
1.2012543
1.2011996
1.2011459
1.2010932
1.2010418
1.2009912
1.2009412
1.2008922
1.2008445
1.2007976
1.2007517
1.2007066
1.2006625
1.2006192
1.2005770
1.2005357
1.2004951
1.2004553
1.2004166
1.2003789
1.2003418
1.2003056
1.2002703
1.2002359
1.2002024
1.2001696
1.2001377
1.2001066
1.2000763
1.2000470
1.2000185
1.1999907
1.1999638
1.1999378
1.1999126
1.1998882
1.1998648
1.1998421
1.1998202
1.1997991
1.1997791
1.1997600
1.1997416
1.1997240
1.1997075
1.1996916
1.1996767
1.1996628
1.1996498
1.1996375
1.1996262
1.1996159
1.1996066
1.1995983
1.1995910
1.1995846
1.1995791
1.1995748
1.1995717
1.1995697
1.1995688
1.1995689
1.1995704
1.1995732
1.1995773
1.1995830
1.1995900
1.1995984
1.1996087
1.1996209
1.1996350
1.1996512
1.1996699
1.1996913
1.1997158
1.1997442
1.1997771
1.1998159
1.1998626
1.1999214
2.0124215
1.2311729
1.2219139
1.2044315
1.2027279
1.2023230
1.2022104
1.2021336
1.2020629
1.2019940
1.2019268
1.2018608
1.2017959
1.2017325
1.2016700
1.2016084
1.2015482
1.2014893
1.2014315
1.2013745
1.2013185
1.2012637
1.2012099
1.2011571
1.2011056
1.2010549
1.2010048
1.2009557
1.2009079
1.2008610
1.2008149
1.2007697
1.2007255
1.2006820
1.2006396
1.2005983
1.2005576
1.2005176
1.2004787
1.2004408
1.2004036
1.2003672
1.2003318
1.2002972
1.2002633
1.2002304
1.2001985
1.2001672
1.2001366
1.2001071
1.2000785
1.2000505
1.2000233
1.1999971
1.1999716
1.1999470
1.1999234
1.1999005
1.1998783
1.1998569
1.1998366
1.1998172
1.1997985
1.1997808
1.1997640
1.1997478
1.1997325
1.1997184
1.1997051
1.1996925
1.1996808
1.1996701
1.1996604
1.1996517
1.1996441
1.1996374
1.1996314
1.1996266
1.1996230
1.1996206
1.1996190
1.1996186
1.1996196
1.1996219
1.1996254
1.1996304
1.1996368
1.1996444
1.1996538
1.1996651
1.1996782
1.1996932
1.1997106
1.1997306
1.1997533
1.1997795
1.1998098
1.1998449
1.1998864
1.1999367
2.0108714
1.2275525
1.2182506
1.2040542
1.2026898
1.2023765
1.2022757
1.2022008
1.2021305
1.2020617
1.2019943
1.2019282
1.2018634
1.2017997
1.2017371
1.2016756
1.2016153
1.2015562
1.2014983
1.2014413
1.2013853
1.2013303
1.2012764
1.2012235
1.2011718
1.2011210
1.2010708
1.2010216
1.2009736
1.2009266
1.2008805
1.2008350
1.2007904
1.2007470
1.2007044
1.2006629
1.2006221
1.2005819
1.2005427
1.2005046
1.2004673
1.2004308
1.2003950
1.2003601
1.2003262
1.2002931
1.2002609
1.2002294
1.2001986
1.2001687
1.2001397
1.2001117
1.2000843
1.2000576
1.2000319
1.2000070
1.1999830
1.1999598
1.1999374
1.1999157
1.1998949
1.1998750
1.1998562
1.1998382
1.1998210
1.1998044
1.1997888
1.1997741
1.1997604
1.1997475
1.1997354
1.1997242
1.1997140
1.1997048
1.1996967
1.1996894
1.1996830
1.1996776
1.1996734
1.1996703
1.1996683
1.1996672
1.1996674
1.1996689
1.1996717
1.1996758
1.1996812
1.1996880
1.1996963
1.1997064
1.1997184
1.1997321
1.1997478
1.1997658
1.1997866
1.1998104
1.1998376
1.1998689
1.1999053
1.1999482
2.0085305
1.2244856
1.2154759
1.2037946
1.2026878
1.2024374
1.2023446
1.2022708
1.2022004
1.2021317
1.2020644
1.2019982
1.2019332
1.2018694
1.2018068
1.2017453
1.2016849
1.2016257
1.2015675
1.2015104
1.2014543
1.2013993
1.2013453
1.2012923
1.2012403
1.2011893
1.2011391
1.2010898
1.2010416
1.2009943
1.2009480
1.2009025
1.2008578
1.2008141
1.2007713
1.2007295
1.2006885
1.2006482
1.2006088
1.2005704
1.2005328
1.2004960
1.2004601
1.2004250
1.2003908
1.2003574
1.2003248
1.2002929
1.2002619
1.2002318
1.2002026
1.2001741
1.2001463
1.2001195
1.2000935
1.2000683
1.2000438
1.2000202
1.1999973
1.1999754
1.1999542
1.1999339
1.1999145
1.1998960
1.1998783
1.1998615
1.1998454
1.1998302
1.1998159
1.1998025
1.1997900
1.1997783
1.1997675
1.1997577
1.1997488
1.1997410
1.1997340
1.1997279
1.1997230
1.1997191
1.1997163
1.1997145
1.1997139
1.1997145
1.1997163
1.1997194
1.1997237
1.1997294
1.1997366
1.1997453
1.1997558
1.1997679
1.1997819
1.1997980
1.1998165
1.1998376
1.1998616
1.1998890
1.1999206
1.1999571
2.0057103
1.2219046
1.2133476
1.2036198
1.2027101
1.2025037
1.2024165
1.2023435
1.2022731
1.2022043
1.2021369
1.2020707
1.2020056
1.2019416
1.2018790
1.2018176
1.2017572
1.2016977
1.2016393
1.2015820
1.2015258
1.2014707
1.2014165
1.2013633
1.2013112
1.2012600
1.2012098
1.2011603
1.2011117
1.2010643
1.2010178
1.2009722
1.2009272
1.2008833
1.2008403
1.2007982
1.2007570
1.2007165
1.2006768
1.2006381
1.2006002
1.2005632
1.2005269
1.2004915
1.2004570
1.2004234
1.2003905
1.2003583
1.2003269
1.2002964
1.2002669
1.2002380
1.2002099
1.2001826
1.2001561
1.2001306
1.2001058
1.2000817
1.2000584
1.2000360
1.2000145
1.1999937
1.1999737
1.1999546
1.1999364
1.1999191
1.1999025
1.1998866
1.1998717
1.1998577
1.1998446
1.1998324
1.1998209
1.1998103
1.1998008
1.1997923
1.1997846
1.1997777
1.1997719
1.1997671
1.1997635
1.1997608
1.1997592
1.1997587
1.1997595
1.1997615
1.1997647
1.1997691
1.1997748
1.1997822
1.1997910
1.1998014
1.1998135
1.1998275
1.1998436
1.1998620
1.1998829
1.1999065
1.1999335
1.1999644
2.0026125
1.2197370
1.2116964
1.2035066
1.2027494
1.2025743
1.2024908
1.2024182
1.2023479
1.2022792
1.2022116
1.2021452
1.2020802
1.2020162
1.2019534
1.2018917
1.2018312
1.2017717
1.2017133
1.2016559
1.2015993
1.2015440
1.2014898
1.2014365
1.2013842
1.2013328
1.2012822
1.2012327
1.2011840
1.2011363
1.2010895
1.2010436
1.2009985
1.2009544
1.2009111
1.2008687
1.2008272
1.2007865
1.2007466
1.2007075
1.2006693
1.2006318
1.2005954
1.2005597
1.2005248
1.2004907
1.2004574
1.2004249
1.2003933
1.2003623
1.2003323
1.2003030
1.2002745
1.2002468
1.2002199
1.2001938
1.2001685
1.2001440
1.2001203
1.2000974
1.2000752
1.2000538
1.2000333
1.2000137
1.1999949
1.1999769
1.1999597
1.1999433
1.1999278
1.1999131
1.1998992
1.1998862
1.1998741
1.1998628
1.1998525
1.1998430
1.1998345
1.1998269
1.1998202
1.1998144
1.1998097
1.1998059
1.1998033
1.1998018
1.1998014
1.1998021
1.1998039
1.1998070
1.1998113
1.1998170
1.1998241
1.1998327
1.1998429
1.1998547
1.1998683
1.1998840
1.1999017
1.1999219
1.1999447
1.1999706
1.9993671
1.2179160
1.2104027
1.2034383
1.2028002
1.2026478
1.2025670
1.2024948
1.2024244
1.2023556
1.2022880
1.2022215
1.2021563
1.2020923
1.2020293
1.2019675
1.2019069
1.2018473
1.2017887
1.2017312
1.2016746
1.2016191
1.2015647
1.2015111
1.2014586
1.2014071
1.2013563
1.2013065
1.2012577
1.2012096
1.2011626
1.2011165
1.2010711
1.2010267
1.2009832
1.2009404
1.2008986
1.2008577
1.2008174
1.2007781
1.2007396
1.2007019
1.2006649
1.2006287
1.2005935
1.2005591
1.2005253
1.2004924
1.2004603
1.2004289
1.2003984
1.2003687
1.2003397
1.2003116
1.2002842
1.2002575
1.2002317
1.2002067
1.2001824
1.2001590
1.2001363
1.2001143
1.2000932
1.2000729
1.2000533
1.2000347
1.2000168
1.1999997
1.1999834
1.1999680
1.1999533
1.1999395
1.1999266
1.1999145
1.1999033
1.1998930
1.1998835
1.1998749
1.1998673
1.1998605
1.1998547
1.1998500
1.1998461
1.1998433
1.1998416
1.1998409
1.1998414
1.1998430
1.1998457
1.1998498
1.1998551
1.1998617
1.1998699
1.1998795
1.1998906
1.1999036
1.1999185
1.1999352
1.1999543
1.1999758
1.9960579
1.2163832
1.2093804
1.2034035
1.2028592
1.2027237
1.2026448
1.2025727
1.2025024
1.2024334
1.2023657
1.2022991
1.2022338
1.2021697
1.2021066
1.2020447
1.2019839
1.2019242
1.2018655
1.2018078
1.2017511
1.2016954
1.2016407
1.2015870
1.2015343
1.2014825
1.2014316
1.2013816
1.2013324
1.2012841
1.2012368
1.2011904
1.2011449
1.2011001
1.2010562
1.2010132
1.2009710
1.2009297
1.2008893
1.2008496
1.2008106
1.2007725
1.2007352
1.2006986
1.2006629
1.2006280
1.2005940
1.2005606
1.2005280
1.2004962
1.2004651
1.2004349
1.2004054
1.2003767
1.2003488
1.2003216
1.2002952
1.2002695
1.2002447
1.2002206
1.2001973
1.2001748
1.2001530
1.2001319
1.2001116
1.2000922
1.2000736
1.2000557
1.2000387
1.2000224
1.2000069
1.1999923
1.1999784
1.1999655
1.1999533
1.1999420
1.1999315
1.1999220
1.1999132
1.1999054
1.1998984
1.1998924
1.1998874
1.1998833
1.1998802
1.1998781
1.1998771
1.1998771
1.1998783
1.1998806
1.1998841
1.1998888
1.1998948
1.1999022
1.1999110
1.1999214
1.1999333
1.1999470
1.1999626
1.1999802
1.9927398
1.2150903
1.2085671
1.2033942
1.2029245
1.2028016
1.2027241
1.2026521
1.2025817
1.2025127
1.2024449
1.2023782
1.2023128
1.2022486
1.2021854
1.2021233
1.2020623
1.2020025
1.2019438
1.2018859
1.2018290
1.2017731
1.2017181
1.2016642
1.2016113
1.2015593
1.2015082
1.2014579
1.2014085
1.2013599
1.2013123
1.2012657
1.2012199
1.2011747
1.2011305
1.2010871
1.2010446
1.2010029
1.2009621
1.2009221
1.2008827
1.2008442
1.2008065
1.2007695
1.2007334
1.2006980
1.2006634
1.2006295
1.2005965
1.2005641
1.2005325
1.2005017
1.2004717
1.2004425
1.2004139
1.2003862
1.2003591
1.2003328
1.2003073
1.2002826
1.2002586
1.2002353
1.2002129
1.2001911
1.2001700
1.2001497
1.2001303
1.2001117
1.2000938
1.2000767
1.2000603
1.2000446
1.2000298
1.2000159
1.2000028
1.1999904
1.1999789
1.1999682
1.1999584
1.1999493
1.1999412
1.1999339
1.1999275
1.1999221
1.1999176
1.1999141
1.1999115
1.1999099
1.1999094
1.1999099
1.1999115
1.1999143
1.1999183
1.1999235
1.1999299
1.1999377
1.1999469
1.1999576
1.1999700
1.1999841
1.9894479
1.2139968
1.2079166
1.2034044
1.2029948
1.2028813
1.2028049
1.2027330
1.2026626
1.2025933
1.2025255
1.2024588
1.2023933
1.2023290
1.2022658
1.2022034
1.2021422
1.2020823
1.2020233
1.2019652
1.2019083
1.2018522
1.2017970
1.2017428
1.2016897
1.2016374
1.2015860
1.2015357
1.2014860
1.2014371
1.2013891
1.2013421
1.2012960
1.2012505
1.2012060
1.2011623
1.2011193
1.2010772
1.2010360
1.2009956
1.2009558
1.2009169
1.2008788
1.2008413
1.2008047
1.2007689
1.2007338
1.2006994
1.2006657
1.2006329
1.2006007
1.2005693
1.2005388
1.2005089
1.2004797
1.2004512
1.2004236
1.2003967
1.2003704
1.2003449
1.2003203
1.2002963
1.2002729
1.2002504
1.2002286
1.2002074
1.2001871
1.2001676
1.2001488
1.2001307
1.2001134
1.2000969
1.2000811
1.2000661
1.2000519
1.2000385
1.2000258
1.2000140
1.2000030
1.1999927
1.1999833
1.1999748
1.1999670
1.1999601
1.1999541
1.1999491
1.1999449
1.1999417
1.1999396
1.1999383
1.1999379
1.1999387
1.1999407
1.1999436
1.1999478
1.1999532
1.1999598
1.1999676
1.1999769
1.1999877
1.9862040
1.2130695
1.2073941
1.2034294
1.2030686
1.2029625
1.2028867
1.2028148
1.2027445
1.2026752
1.2026072
1.2025404
1.2024747
1.2024103
1.2023469
1.2022845
1.2022232
1.2021630
1.2021038
1.2020457
1.2019885
1.2019322
1.2018768
1.2018224
1.2017689
1.2017164
1.2016648
1.2016142
1.2015643
1.2015151
1.2014668
1.2014194
1.2013729
1.2013272
1.2012824
1.2012383
1.2011949
1.2011523
1.2011106
1.2010697
1.2010296
1.2009903
1.2009517
1.2009138
1.2008766
1.2008402
1.2008046
1.2007697
1.2007356
1.2007021
1.2006693
1.2006372
1.2006060
1.2005755
1.2005458
1.2005167
1.2004882
1.2004605
1.2004336
1.2004074
1.2003819
1.2003572
1.2003332
1.2003097
1.2002870
1.2002650
1.2002438
1.2002233
1.2002036
1.2001846
1.2001662
1.2001486
1.2001318
1.2001157
1.2001005
1.2000860
1.2000721
1.2000590
1.2000467
1.2000352
1.2000245
1.2000146
1.2000055
1.1999972
1.1999897
1.1999830
1.1999773
1.1999725
1.1999685
1.1999655
1.1999633
1.1999621
1.1999619
1.1999628
1.1999647
1.1999677
1.1999717
1.1999769
1.1999833
1.1999910
1.9830214
1.2122803
1.2069730
1.2034660
1.2031451
1.2030445
1.2029692
1.2028973
1.2028268
1.2027576
1.2026897
1.2026227
1.2025569
1.2024922
1.2024287
1.2023662
1.2023048
1.2022445
1.2021851
1.2021268
1.2020693
1.2020128
1.2019572
1.2019026
1.2018489
1.2017961
1.2017442
1.2016932
1.2016431
1.2015938
1.2015451
1.2014973
1.2014505
1.2014044
1.2013590
1.2013146
1.2012709
1.2012279
1.2011858
1.2011444
1.2011038
1.2010639
1.2010249
1.2009865
1.2009489
1.2009120
1.2008758
1.2008404
1.2008055
1.2007714
1.2007380
1.2007054
1.2006735
1.2006423
1.2006118
1.2005820
1.2005529
1.2005244
1.2004967
1.2004697
1.2004434
1.2004178
1.2003929
1.2003688
1.2003452
1.2003223
1.2003001
1.2002786
1.2002579
1.2002378
1.2002185
1.2001999
1.2001820
1.2001648
1.2001483
1.2001325
1.2001175
1.2001032
1.2000897
1.2000769
1.2000649
1.2000536
1.2000430
1.2000331
1.2000241
1.2000159
1.2000086
1.2000020
1.1999963
1.1999914
1.1999875
1.1999843
1.1999821
1.1999808
1.1999805
1.1999811
1.1999828
1.1999854
1.1999892
1.1999940
1.9799094
1.2116075
1.2066334
1.2035115
1.2032235
1.2031274
1.2030524
1.2029805
1.2029099
1.2028406
1.2027725
1.2027055
1.2026396
1.2025749
1.2025112
1.2024486
1.2023871
1.2023265
1.2022670
1.2022085
1.2021509
1.2020941
1.2020383
1.2019835
1.2019295
1.2018764
1.2018242
1.2017728
1.2017223
1.2016727
1.2016238
1.2015757
1.2015286
1.2014821
1.2014364
1.2013915
1.2013474
1.2013040
1.2012613
1.2012196
1.2011784
1.2011380
1.2010985
1.2010596
1.2010213
1.2009839
1.2009471
1.2009110
1.2008757
1.2008411
1.2008070
1.2007737
1.2007411
1.2007092
1.2006780
1.2006475
1.2006176
1.2005884
1.2005599
1.2005321
1.2005049
1.2004784
1.2004526
1.2004275
1.2004031
1.2003793
1.2003561
1.2003336
1.2003119
1.2002908
1.2002704
1.2002507
1.2002317
1.2002133
1.2001957
1.2001787
1.2001624
1.2001469
1.2001320
1.2001178
1.2001044
1.2000917
1.2000796
1.2000683
1.2000579
1.2000480
1.2000390
1.2000308
1.2000233
1.2000166
1.2000108
1.2000058
1.2000015
1.1999982
1.1999957
1.1999940
1.1999933
1.1999936
1.1999947
1.1999968
1.9768731
1.2110325
1.2063596
1.2035640
1.2033031
1.2032107
1.2031362
1.2030642
1.2029935
1.2029242
1.2028560
1.2027888
1.2027228
1.2026580
1.2025942
1.2025315
1.2024698
1.2024089
1.2023492
1.2022906
1.2022328
1.2021758
1.2021198
1.2020647
1.2020105
1.2019572
1.2019047
1.2018529
1.2018021
1.2017522
1.2017030
1.2016545
1.2016069
1.2015601
1.2015140
1.2014687
1.2014242
1.2013803
1.2013372
1.2012949
1.2012533
1.2012124
1.2011723
1.2011329
1.2010941
1.2010561
1.2010187
1.2009820
1.2009460
1.2009107
1.2008760
1.2008421
1.2008088
1.2007761
1.2007442
1.2007129
1.2006823
1.2006522
1.2006230
1.2005943
1.2005662
1.2005389
1.2005122
1.2004861
1.2004607
1.2004359
1.2004117
1.2003883
1.2003656
1.2003435
1.2003219
1.2003011
1.2002809
1.2002613
1.2002425
1.2002243
1.2002067
1.2001898
1.2001737
1.2001582
1.2001433
1.2001291
1.2001157
1.2001028
1.2000908
1.2000794
1.2000687
1.2000588
1.2000496
1.2000411
1.2000334
1.2000265
1.2000203
1.2000149
1.2000103
1.2000064
1.2000034
1.2000013
1.2000000
1.1999995
1.9739152
1.2105399
1.2061392
1.2036218
1.2033839
1.2032943
1.2032200
1.2031479
1.2030772
1.2030078
1.2029395
1.2028723
1.2028061
1.2027411
1.2026772
1.2026144
1.2025526
1.2024916
1.2024317
1.2023728
1.2023148
1.2022576
1.2022013
1.2021459
1.2020915
1.2020380
1.2019852
1.2019331
1.2018820
1.2018317
1.2017822
1.2017334
1.2016853
1.2016381
1.2015916
1.2015460
1.2015010
1.2014566
1.2014130
1.2013703
1.2013282
1.2012868
1.2012460
1.2012060
1.2011667
1.2011282
1.2010902
1.2010528
1.2010162
1.2009803
1.2009450
1.2009102
1.2008762
1.2008428
1.2008102
1.2007781
1.2007466
1.2007158
1.2006856
1.2006561
1.2006272
1.2005989
1.2005712
1.2005443
1.2005180
1.2004922
1.2004670
1.2004425
1.2004186
1.2003955
1.2003729
1.2003508
1.2003294
1.2003088
1.2002887
1.2002692
1.2002503
1.2002321
1.2002146
1.2001977
1.2001815
1.2001658
1.2001508
1.2001365
1.2001229
1.2001099
1.2000975
1.2000859
1.2000750
1.2000648
1.2000552
1.2000463
1.2000382
1.2000308
1.2000242
1.2000182
1.2000129
1.2000085
1.2000049
1.2000021
1.9710379
1.2101173
1.2059627
1.2036842
1.2034652
1.2033778
1.2033037
1.2032317
1.2031610
1.2030915
1.2030231
1.2029557
1.2028895
1.2028245
1.2027604
1.2026973
1.2026353
1.2025742
1.2025142
1.2024552
1.2023970
1.2023395
1.2022830
1.2022274
1.2021727
1.2021187
1.2020657
1.2020135
1.2019620
1.2019113
1.2018614
1.2018122
1.2017639
1.2017163
1.2016694
1.2016232
1.2015778
1.2015331
1.2014890
1.2014456
1.2014030
1.2013610
1.2013198
1.2012793
1.2012393
1.2012001
1.2011615
1.2011236
1.2010862
1.2010496
1.2010136
1.2009782
1.2009435
1.2009094
1.2008759
1.2008430
1.2008108
1.2007792
1.2007481
1.2007177
1.2006879
1.2006587
1.2006301
1.2006022
1.2005748
1.2005480
1.2005219
1.2004963
1.2004713
1.2004470
1.2004233
1.2004001
1.2003776
1.2003557
1.2003343
1.2003135
1.2002934
1.2002739
1.2002550
1.2002366
1.2002190
1.2002019
1.2001855
1.2001697
1.2001544
1.2001398
1.2001258
1.2001125
1.2000998
1.2000878
1.2000764
1.2000657
1.2000556
1.2000463
1.2000376
1.2000295
1.2000222
1.2000156
1.2000096
1.2000044
1.9682421
1.2097546
1.2058225
1.2037497
1.2035470
1.2034614
1.2033874
1.2033154
1.2032448
1.2031752
1.2031066
1.2030392
1.2029730
1.2029078
1.2028436
1.2027804
1.2027181
1.2026568
1.2025966
1.2025373
1.2024790
1.2024215
1.2023647
1.2023088
1.2022538
1.2021996
1.2021463
1.2020937
1.2020419
1.2019908
1.2019405
1.2018911
1.2018424
1.2017944
1.2017471
1.2017004
1.2016545
1.2016093
1.2015648
1.2015210
1.2014779
1.2014353
1.2013934
1.2013523
1.2013118
1.2012720
1.2012328
1.2011941
1.2011562
1.2011189
1.2010822
1.2010461
1.2010107
1.2009758
1.2009414
1.2009077
1.2008747
1.2008423
1.2008104
1.2007791
1.2007483
1.2007182
1.2006887
1.2006598
1.2006314
1.2006036
1.2005763
1.2005497
1.2005236
1.2004982
1.2004733
1.2004490
1.2004253
1.2004020
1.2003795
1.2003575
1.2003361
1.2003153
1.2002949
1.2002752
1.2002560
1.2002375
1.2002196
1.2002023
1.2001855
1.2001692
1.2001536
1.2001386
1.2001242
1.2001105
1.2000973
1.2000846
1.2000727
1.2000613